# vtk DataFile Version 3.0 
airfoil.vtk
ASCII
DATASET UNSTRUCTURED_GRID
POINTS         3200 double
0.5 0.0 0.0
0.49813567635 1.4622807076e-05 0.0
0.49256242082 0.00011620630276 0.0
0.48333889136 0.00038787415751 0.0
0.47056125044 0.00090527665137 0.0
0.45436085652 0.0017333401416 0.0
0.43490120827 0.0029235584197 0.0
0.41237429867 0.0045119424084 0.0
0.38699655606 0.0065176988099 0.0
0.35900455529 0.0089426608204 0.0
0.3286506753 0.011771449181 0.0
0.29619886082 0.014972303193 0.0
0.26192062017 0.018498491335 0.0
0.22609135975 0.022290190985 0.0
0.18898712346 0.026276716525 0.0
0.15088177428 0.030378973925 0.0
0.11204462728 0.034512026168 0.0
0.072738520471 0.038587665681 0.0
0.033218292595 0.042516905396 0.0
-0.0062703751481 0.046212317196 0.0
-0.045491803279 0.049590163934 0.0
-0.084220896461 0.05257228766 0.0
-0.12224351563 0.055087731419 0.0
-0.15935668786 0.057074084514 0.0
-0.19536869673 0.058478551282 0.0
-0.23009909023 0.059258751259 0.0
-0.26337863627 0.059383264318 0.0
-0.29504925009 0.058831938183 0.0
-0.32496391185 0.057595977997 0.0
-0.35298658704 0.055677838699 0.0
-0.3789921587 0.053090941054 0.0
-0.40286637572 0.049859231674 0.0
-0.42450581946 0.046016606344 0.0
-0.44381788798 0.041606214732 0.0
-0.46072079596 0.036679663188 0.0
-0.47514358722 0.031296130927 0.0
-0.48702615597 0.025521413581 0.0
-0.49631927316 0.019426906852 0.0
-0.50298461387 0.013088541932 0.0
-0.5069947826 0.0065856834591 0.0
-0.50833333333 7.4631658878e-18 0.0
-0.5069947826 -0.0065856834591 0.0
-0.50298461387 -0.013088541932 0.0
-0.49631927316 -0.019426906852 0.0
-0.48702615597 -0.025521413581 0.0
-0.47514358722 -0.031296130927 0.0
-0.46072079596 -0.036679663188 0.0
-0.44381788798 -0.041606214732 0.0
-0.42450581946 -0.046016606344 0.0
-0.40286637572 -0.049859231674 0.0
-0.3789921587 -0.053090941054 0.0
-0.35298658704 -0.055677838699 0.0
-0.32496391185 -0.057595977997 0.0
-0.29504925009 -0.058831938183 0.0
-0.26337863627 -0.059383264318 0.0
-0.23009909023 -0.059258751259 0.0
-0.19536869673 -0.058478551282 0.0
-0.15935668786 -0.057074084514 0.0
-0.12224351563 -0.055087731419 0.0
-0.084220896461 -0.05257228766 0.0
-0.045491803279 -0.049590163934 0.0
-0.0062703751481 -0.046212317196 0.0
0.033218292595 -0.042516905396 0.0
0.072738520471 -0.038587665681 0.0
0.11204462728 -0.034512026168 0.0
0.15088177428 -0.030378973925 0.0
0.18898712346 -0.026276716525 0.0
0.22609135975 -0.022290190985 0.0
0.26192062017 -0.018498491335 0.0
0.29619886082 -0.014972303193 0.0
0.3286506753 -0.011771449181 0.0
0.35900455529 -0.0089426608204 0.0
0.38699655606 -0.0065176988099 0.0
0.41237429867 -0.0045119424084 0.0
0.43490120827 -0.0029235584197 0.0
0.45436085652 -0.0017333401416 0.0
0.47056125044 -0.00090527665137 0.0
0.48333889136 -0.00038787415751 0.0
0.49256242082 -0.00011620630276 0.0
0.49813567635 -1.4622807076e-05 0.0
0.50017135964 0.0 0.0
0.49831942518 0.0011410251367 0.0
0.49278277215 0.0023572457333 0.0
0.4836183928 0.003720306132 0.0
0.47091976994 0.00529493343 0.0
0.45481470525 0.0071359273209 0.0
0.43546244078 0.0092856504326 0.0
0.41305021787 0.011772127677 0.0
0.38778943697 0.01460782132 0.0
0.35991158788 0.017789105006 0.0
0.32966411432 0.021296418692 0.0
0.29730636052 0.025095050626 0.0
0.2631057243 0.029136464434 0.0
0.2273341127 0.033360070132 0.0
0.19026476679 0.037695327731 0.0
0.15216949346 0.042064070216 0.0
0.11331631618 0.046382937733 0.0
0.073967535126 0.05056582514 0.0
0.034378170487 0.054526258903 0.0
-0.005205248912 0.058179634905 0.0
-0.044545596523 0.061445264788 0.0
-0.08341580627 0.064248193737 0.0
-0.12159932546 0.066520766463 0.0
-0.15889040704 0.068203930035 0.0
-0.19509428137 0.069248271987 0.0
-0.23002724237 0.069614799753 0.0
-0.26351667685 0.06927547314 0.0
-0.29540106031 0.06821350546 0.0
-0.32552993686 0.066423451371 0.0
-0.35376389599 0.06391110072 0.0
-0.37997455484 0.060693198061 0.0
-0.40404455084 0.056797007147 0.0
-0.425867547 0.05225973897 0.0
-0.44534824955 0.04712786084 0.0
-0.46240243661 0.041456302802 0.0
-0.47695699489 0.035307576446 0.0
-0.48894996124 0.028750819967 0.0
-0.49833056543 0.021860782196 0.0
-0.50505927076 0.014716757341 0.0
-0.50910780918 0.0074014813383 0.0
-0.51045920844 9.3868055415e-18 0.0
-0.50910780918 -0.0074014813383 0.0
-0.50505927076 -0.014716757341 0.0
-0.49833056543 -0.021860782196 0.0
-0.48894996124 -0.028750819967 0.0
-0.47695699489 -0.035307576446 0.0
-0.46240243661 -0.041456302802 0.0
-0.44534824955 -0.04712786084 0.0
-0.425867547 -0.05225973897 0.0
-0.40404455084 -0.056797007147 0.0
-0.37997455484 -0.060693198061 0.0
-0.35376389599 -0.06391110072 0.0
-0.32552993686 -0.066423451371 0.0
-0.29540106031 -0.06821350546 0.0
-0.26351667685 -0.06927547314 0.0
-0.23002724237 -0.069614799753 0.0
-0.19509428137 -0.069248271987 0.0
-0.15889040704 -0.068203930035 0.0
-0.12159932546 -0.066520766463 0.0
-0.08341580627 -0.064248193737 0.0
-0.044545596523 -0.061445264788 0.0
-0.005205248912 -0.058179634905 0.0
0.034378170487 -0.054526258903 0.0
0.073967535126 -0.05056582514 0.0
0.11331631618 -0.046382937733 0.0
0.15216949346 -0.042064070216 0.0
0.19026476679 -0.037695327731 0.0
0.2273341127 -0.033360070132 0.0
0.2631057243 -0.029136464434 0.0
0.29730636052 -0.025095050626 0.0
0.32966411432 -0.021296418692 0.0
0.35991158788 -0.017789105006 0.0
0.38778943697 -0.01460782132 0.0
0.41305021787 -0.011772127677 0.0
0.43546244078 -0.0092856504326 0.0
0.45481470525 -0.0071359273209 0.0
0.47091976994 -0.00529493343 0.0
0.4836183928 -0.003720306132 0.0
0.49278277215 -0.0023572457333 0.0
0.49831942518 -0.0011410251367 0.0
0.50087132336 0.0 0.0
0.49903247112 0.0025482560964 0.0
0.49353441385 0.005157370789 0.0
0.48443222506 0.0078849870228 0.0
0.47181630039 0.01078248357 0.0
0.45581034341 0.013892248367 0.0
0.43656869111 0.017245404995 0.0
0.41427310916 0.020860091583 0.0
0.38912920475 0.024740354177 0.0
0.36136261103 0.028875677619 0.0
0.33121509277 0.033241139858 0.0
0.29894070934 0.037798142988 0.0
0.2648021505 0.042495648471 0.0
0.2290673358 0.047271825969 0.0
0.19200634192 0.052056015116 0.0
0.15388869604 0.056770897067 0.0
0.11498105022 0.061334776359 0.0
0.07554523146 0.065663882329 0.0
0.035836646575 0.069674611304 0.0
-0.0038969901054 0.073285644645 0.0
-0.043416645381 0.076419892129 0.0
-0.08249271451 0.079006224146 0.0
-0.12090556992 0.080980968926 0.0
-0.15844595187 0.082289162207 0.0
-0.19491523812 0.082885545957 0.0
-0.23012562471 0.082735320198 0.0
-0.26390024515 0.081814657512 0.0
-0.29607324996 0.080110993784 0.0
-0.32648986332 0.077623111347 0.0
-0.35500642964 0.074361032126 0.0
-0.38149045819 0.070345738994 0.0
-0.40582067119 0.065608743491 0.0
-0.4278870577 0.0601915175 0.0
-0.44759093367 0.054144805699 0.0
-0.46484500698 0.047527834562 0.0
-0.47957344508 0.04040743267 0.0
-0.49171194247 0.032857075999 0.0
-0.50120778472 0.024955870899 0.0
-0.50801990599 0.016787486557 0.0
-0.51211893696 0.0084390479908 0.0
-0.51348724109 1.2140641168e-17 0.0
-0.51211893696 -0.0084390479908 0.0
-0.50801990599 -0.016787486557 0.0
-0.50120778472 -0.024955870899 0.0
-0.49171194247 -0.032857075999 0.0
-0.47957344508 -0.04040743267 0.0
-0.46484500698 -0.047527834562 0.0
-0.44759093367 -0.054144805699 0.0
-0.4278870577 -0.0601915175 0.0
-0.40582067119 -0.065608743491 0.0
-0.38149045819 -0.070345738994 0.0
-0.35500642964 -0.074361032126 0.0
-0.32648986332 -0.077623111347 0.0
-0.29607324996 -0.080110993784 0.0
-0.26390024515 -0.081814657512 0.0
-0.23012562471 -0.082735320198 0.0
-0.19491523812 -0.082885545957 0.0
-0.15844595187 -0.082289162207 0.0
-0.12090556992 -0.080980968926 0.0
-0.08249271451 -0.079006224146 0.0
-0.043416645381 -0.076419892129 0.0
-0.0038969901054 -0.073285644645 0.0
0.035836646575 -0.069674611304 0.0
0.07554523146 -0.065663882329 0.0
0.11498105022 -0.061334776359 0.0
0.15388869604 -0.056770897067 0.0
0.19200634192 -0.052056015116 0.0
0.2290673358 -0.047271825969 0.0
0.2648021505 -0.042495648471 0.0
0.29894070934 -0.037798142988 0.0
0.33121509277 -0.033241139858 0.0
0.36136261103 -0.028875677619 0.0
0.38912920475 -0.024740354177 0.0
0.41427310916 -0.020860091583 0.0
0.43656869111 -0.017245404995 0.0
0.45581034341 -0.013892248367 0.0
0.47181630039 -0.01078248357 0.0
0.48443222506 -0.0078849870228 0.0
0.49353441385 -0.005157370789 0.0
0.49903247112 -0.0025482560964 0.0
0.50249899596 0.0 0.0
0.50067270419 0.0042941903284 0.0
0.49521160189 0.0086319826563 0.0
0.48616862126 0.013054148294 0.0
0.47363071262 0.01759594453 0.0
0.45771700605 0.022284715339 0.0
0.43857636522 0.027137892621 0.0
0.41638444766 0.032161486801 0.0
0.3913404023 0.037349123298 0.0
0.36366334085 0.04268164739 0.0
0.33358871692 0.048127287309 0.0
0.30136473571 0.053642336487 0.0
0.26724889963 0.059172292559 0.0
0.23150477426 0.0646533741 0.0
0.19439903587 0.070014326292 0.0
0.15619883884 0.075178423574 0.0
0.11716952064 0.080065579724 0.0
0.077572643492 0.084594482764 0.0
0.037664357902 0.088684682092 0.0
-0.0023059378522 0.092258567182 0.0
-0.042096674801 0.095243189773 0.0
-0.081474963287 0.09757189396 0.0
-0.12021725308 0.099185730101 0.0
-0.15810983951 0.10003463871 0.0
-0.19494924874 0.10007839916 0.0
-0.23054253142 0.099287345059 0.0
-0.26470748963 0.097642853494 0.0
-0.29727285746 0.095137619549 0.0
-0.32807845127 0.09177572996 0.0
-0.35697530144 0.087572551664 0.0
-0.38382577409 0.082554451769 0.0
-0.40850368784 0.076758365689 0.0
-0.43089442846 0.070231229949 0.0
-0.45089506203 0.063029295615 0.0
-0.46841444598 0.05521733752 0.0
-0.48337333596 0.046867773642 0.0
-0.49570448637 0.038059708094 0.0
-0.50535274156 0.028877910365 0.0
-0.51227511502 0.019411742676 0.0
-0.51644085395 0.0097540466561 0.0
-0.51783148705 1.6119948917e-17 0.0
-0.51644085395 -0.0097540466561 0.0
-0.51227511502 -0.019411742676 0.0
-0.50535274156 -0.028877910365 0.0
-0.49570448637 -0.038059708094 0.0
-0.48337333596 -0.046867773642 0.0
-0.46841444598 -0.05521733752 0.0
-0.45089506203 -0.063029295615 0.0
-0.43089442846 -0.070231229949 0.0
-0.40850368784 -0.076758365689 0.0
-0.38382577409 -0.082554451769 0.0
[...]
POINT_DATA  3200
FIELD  FlowField  5
Density    1 3200  double
1.0664986638223724
1.0568181899278493
1.0578326868439896
1.057051142287794
1.055019811159314
1.0518230692761943
1.0476155179108364
1.042555943107772
1.0368873937848113
1.0309040165139707
1.0248738388306382
1.0189414765535396
1.0129099382622553
1.0067918638563245
0.9979958351278544
0.9924537342906921
0.8457413878744648
0.6290369488968852
0.5679276415810997
0.5751908655819243
0.576662776925376
0.5821709546178923
0.5884479174735087
0.5964436659823876
0.606007710142769
0.6172590176486781
0.6302829636656924
0.6452154696325871
0.662251078262813
0.6816638596952938
0.7038440855386906
0.7293364108308742
0.7588893326805217
0.7934995398723528
0.8347054518986081
0.8863987445748445
0.9594223418337716
1.0506528412437164
1.1377847851581389
1.2184760040719533
1.275178700705379
1.2534185310067385
1.1858225064588486
1.1196966035579723
1.041801747151591
0.9715711072814214
0.920651665819564
0.879098171407501
0.843788994664997
0.8133566088673039
0.7869505993737032
0.7639366453382936
0.7438299246801704
0.726286796366661
0.7110687405278846
0.6980322569114514
0.6870636129775191
0.678032897775729
0.6721986524969149
0.6634825891541493
0.7945550354286856
0.98599072642092
1.0217795621426524
1.004794982965859
1.0057895149528209
1.0083320615613733
1.0133457756786348
1.019201286642692
1.0254491190677806
1.0319926554366583
1.0388698895998147
1.046037207400031
1.0531940373209066
1.059822390409321
1.0654098545653419
1.0696725277971832
1.0726077956068178
1.0744667816115177
1.0755647554662207
1.0766150570874715
1.0660547006239516
1.0566684600439666
1.0573587731183927
1.0565770237891752
1.0546105053802761
1.0515430694214298
1.047513312346951
1.0426696733411187
1.0372455015077673
1.0315257134227616
1.0257724003540725
1.0201301241739231
1.0144100104730038
1.0086245106735885
1.000258436299216
0.9958650802546516
0.8484573260250544
0.630585817850196
0.5702625553957579
0.57818005856808
0.5801212238086777
0.58605261291341
0.5928093557275794
0.6013034640431375
0.6114004918575602
0.6232234392370116
0.636869624792463
0.652490622610358
0.6703001224778558
0.690598077348039
0.713808220520668
0.7405185504683094
0.7715368772919673
0.8079532558690656
0.8514534750346106
0.9058206170804206
0.9800492526878612
1.0703233086795971
1.1553549799226661
1.2307741592564092
1.282177135430499
1.262347363289928
1.2003896703764243
1.136653641057439
1.0593670093885525
0.9887482163888177
0.9358224517985219
0.8923719423624712
0.8555074318713954
0.8237875285025882
0.7962926625855238
0.772347213408815
0.7514332370792766
0.73318088458724
0.7173305276524684
0.7037224637249978
0.6922318376414707
0.6827264162298329
0.6763068228664771
0.6669150102235195
0.797683157551596
0.9887956211230776
1.0241120581710963
1.0068414756105017
1.0076097033237155
1.009950164195673
1.0147198320269342
1.0203365098781532
1.0263458553342448
1.032648488246932
1.0392829923266023
1.0462099517267471
1.0531400949227738
1.0595707904630585
1.0650008717545147
1.0691473731185939
1.0719994808551871
1.0737940118883598
1.074846344484756
1.0757236180169876
1.064645123164376
1.0561779128187063
1.0563237385374378
1.0556003566221752
1.053860275824175
1.0511539678672812
1.0475779193306087
1.0432478260011107
1.0383674890235537
1.0331980696128533
1.0279879898738584
1.022881097237263
1.0177010490454614
1.012503874160303
1.0048849885626918
1.0030111010099683
0.8541228106468839
0.6333751061251861
0.5748578803793426
0.5843607198023552
0.5871582107618889
0.5939486327209235
0.6016581612986343
0.6111403812900081
0.6222842803446871
0.6352197921221274
0.6500679860295902
0.6670085225375714
0.6862876695462647
0.7082521877342056
0.7333859718941881
0.7623527059532753
0.7960630964765782
0.8357636349979067
0.8833381767158857
0.9419970877105284
1.0171888393846065
1.1033483583047148
1.182050831624785
1.2476097671007536
1.289766034267675
1.2727830975666985
1.2203062428884144
1.162345708430039
1.0891592214442956
1.0195694634606887
0.9637562433479889
0.917242678322871
0.8777394771439632
0.843785728886582
0.8143708726721808
0.788760048133739
0.7663835376260737
0.7468300615737239
0.7298060985059248
0.715125377148383
0.7026502761425626
0.6922314959444573
0.6846725757593579
0.6741053011498386
0.8044990421991826
0.9939900099380121
1.0277100363367584
1.0105537802916191
1.0111843343141027
1.0132114367679252
1.0175867853547134
1.0227954545515328
1.0283846040372853
1.0342426551992858
1.040402007338394
1.0468271113069054
1.0532536629067737
1.0592190867755817
1.064257062201055
1.0680964201007304
1.0707118751474614
1.0722981888888894
1.073123291322412
1.0733715632553529
1.0622342236999605
1.055062691637084
1.0550590898133958
1.0545913706962506
1.0532550269481455
1.0510499288230135
1.0480128892227696
1.044206737679043
1.0397947236980922
1.0350163938821306
1.0301173135310249
1.0252558412463637
1.020282496621249
1.0153832468572541
1.0081965161373534
1.0087539354107964
0.8590893012344625
0.6355445990335271
0.5789992096959989
0.5906429850789768
0.594220893052746
0.6019421623850012
0.6106544305632052
0.6211687330141527
0.6333932864757509
0.6474676384764239
0.6635366115415549
0.6818044459345646
0.7025463197183944
0.7261483165703612
0.753138843104352
0.7842270418264514
0.8203783416749131
0.8628773938020398
0.9135329783282663
0.97450350567946
1.047460104089132
1.1254703886014013
1.194905614670947
1.2511198048922219
1.2865252790446084
1.2725090171623128
1.227023413181507
1.175533182241023
1.1103514510778516
1.0449114388828085
0.9883202048514254
0.9399916262913681
0.8986176880586119
0.8629234353428445
0.831914722589228
0.8048593581117688
0.7811726338738043
0.7604259224983555
0.7423063992643308
0.7266097536841366
0.7131953797087527
0.7018822932658844
0.6931939246265051
0.6820188088108194
0.8124793963491216
0.9978372912599316
1.02843828999344
1.0126860588991922
1.013702069166527
1.0156403602861195
1.019832525086811
1.024825238083735
1.0301862520332972
1.0357781072415024
1.0416059871557015
1.047617270652077
1.0535614488004033
1.0590206287327755
1.0635808197145855
1.0670023491754925
1.0692535769520874
1.070467843181643
1.0707956468051083
1.0700881768251147
1.058982130051453
1.0530596480130259
1.053410206703994
1.0534673069855318
1.052624655014628
1.050870546268854
1.0482063265164396
1.0446741906614088
1.0404300321222213
1.035722481681383
1.030819026141204
1.0259151440780692
1.0209138144989045
1.0161824326231856
1.0093073399686725
1.012145509100061
0.8638014095534886
0.6384691997283524
0.5832712849565296
0.5976180022250543
0.6021140777560484
0.6109680204652224
0.6208858073238075
0.6326327575530009
0.6461452132632083
0.6615774612865367
0.6790959840472195
0.6989277414398665
0.7213762568243112
0.7468535410120021
0.7759047412190432
0.8092219734561115
0.847732716342477
0.8925719535014958
0.9450331077115754
1.00571730326234
1.0727422336599348
1.1395633183929461
1.197932702214017
1.243671921786456
1.2722118339845752
1.262632329438873
1.2252410898027297
1.18081853022247
1.1254244096768629
1.0669052088783502
1.0122260569414239
0.9635216604232899
0.9209720846389012
0.8838798728373228
0.851410819503838
0.8229155778957695
0.7978532472131201
0.7758139543946947
0.7564864713068973
0.7396591444342522
0.7251913786569844
0.712865893633416
0.7029480917444183
0.692210978517512
0.8224859776214791
0.9999860048256295
1.026078372783431
1.0129148881370613
1.0146229851224018
1.0166469562246165
1.0207536077546016
1.0256316478318168
1.0309010035887116
1.036398513932838
1.042085004293299
1.0478644786150655
1.0534733494747794
1.0585213285276225
1.062643843386585
1.065637036465153
1.0674587874157917
1.06815965117332
1.0677731940357982
1.0661565649058298
1.055119419500611
1.0502414203484773
1.051216948927429
1.0518994584894625
1.0514592570223011
1.049949668577503
1.047411867475711
1.0439310216735973
1.0396967682796074
1.0349830818724421
1.0300758240771475
1.0251975452244413
1.020298402269246
1.015915302547977
1.0094521482886496
1.014828286252431
0.8709466850985754
0.644594525898454
0.5890225706518709
0.6066417174701012
0.6123607157034247
0.6226222149901394
0.6340326209608831
0.6473053043456909
0.6624109305166233
0.6795174204448626
0.6988069634811199
0.7205196599415002
0.744969390106694
0.7725582773375244
0.8037979692460795
0.8392747851952826
0.8797421157366963
0.925909969186179
0.9779075918474275
1.034434569308153
1.0921173479880395
1.1462119641492219
1.192141815410824
1.226368726115085
1.2465229939333358
1.2411861893729799
1.2143580084241887
1.1788050387991134
1.1342683048306819
1.0850107276435093
1.0355909942775399
0.988840039506074
0.9463034216612451
0.9083843248122643
0.8747297400952461
0.8448809163050883
0.8184059581620425
0.7949601846920453
0.774270617640104
0.7561430612789675
0.740449132687827
0.7269385600502171
0.7157273185916193
0.7070564814633418
0.8355590383797434
1.0004708799256388
1.021490221881148
1.0120104869334041
1.0146659786732437
1.016928735467146
1.0209481959154205
1.025660592451659
1.030788352693994
1.0361659577321016
1.0417149886692405
1.0472918451942863
1.0526096468131
1.0572933404005171
1.0610164177908652
1.063599051486157
1.0649745688200816
1.0651181570322823
1.0640374439803728
1.0617692065946815
1.0506964791639986
1.046669387533745
1.0482558124877723
1.0494145166427515
1.0492013323028158
1.0478048301713123
1.0453551845763538
1.0419924898174422
1.0379201178961859
1.0333978797424173
1.02868817956913
1.0240100402675683
1.0193448079425038
1.0153691436105752
1.0092678293521162
1.01725972545638
0.8824699597539949
0.6561211072551497
0.5969444737015405
0.6183907661765817
0.6257712662510994
0.6377098505429613
0.6509013648762647
0.6659936898944676
0.682988816757067
0.7020573467817723
0.7233817189850869
0.7471880256241807
0.773760555381428
0.8034350614731046
0.8366219367271792
0.8736988036023046
0.9149543271108626
0.9602397183708666
1.0083290423061304
1.0569194933003585
1.1032754216628216
1.144504830776102
1.1780378680423786
1.2015468223410288
1.2140736119435906
1.2116794096997001
1.195001614165824
1.1693409791900233
1.1359173038515
1.097005072202445
1.0554313647860172
1.0135370649885558
0.9731852222931255
0.9356928021496751
0.9015439692632083
0.8707232581119277
0.8430351242324164
0.8182504689289682
0.7961754971038388
0.7766705441164078
0.7596460126872262
0.7448506239930239
0.7325162376853521
0.7280726658955783
0.8517370754980075
0.998665123397882
1.01497654720708
1.0100562190417317
1.0139854710389413
1.0167831916850096
1.0208514606055938
1.025434375180736
1.0303917516844676
1.0355785590128441
1.0408891197975043
1.0461437875155049
1.0510457933376076
1.0552480748242918
1.0584717879035606
1.0605692817985233
1.0614712308538456
1.0611410756283621
1.0596268369910191
1.0569734210341957
1.0456354142284583
1.0423092238424536
1.0443244995406582
1.045699987734141
1.0455941389606882
1.0443631208977964
1.0421932292490417
1.0392160338160596
1.035577449345484
1.0314655113180082
1.0270878255538198
1.0226523367737654
1.0181745209289372
1.0144441794963528
1.0085086145316737
1.0186133040301364
0.9001958739311795
0.6761681938449182
0.6077735581882197
0.6333281432860811
0.643009848578316
0.6568981359902991
0.6721469112358494
0.6893200623555631
0.7084360276622346
0.7296434410945988
0.753095182868242
0.7789604590632409
0.8074455468172446
0.8387548651005023
0.8730332712676948
0.9102308800510205
0.9499145716692615
0.9910461658427023
1.03190625324011
1.0705937335320672
1.1054612039222595
1.1348087155327418
1.1574404718681097
1.1723819999491658
1.1795939233963657
1.1788048601376615
1.169534624189731
1.1529055967054873
1.1298371004120473
1.1012624734684153
1.0687631610428456
1.0340219673021467
0.9985137341226409
0.9636373367754192
0.9304754920544595
0.8996176883880271
0.8712924062827311
0.8455233576070668
0.8222717665271099
0.8014913081691684
0.7831698652841541
0.7671377026818704
0.7541891704179384
0.7561499459333052
0.8703517446579971
0.9938608465597243
1.006777823419315
1.0068808630638788
1.0123100897108994
1.015950486634808
1.0202998347874692
1.024914406974433
1.0297885476833246
1.0347988866231124
1.0398114152688895
1.0446168807516585
1.0489258922693248
1.0524447201919134
1.0549743550357902
1.0564448626024272
1.0568539811512
1.0562188670699428
1.0545685207328452
1.05167631084248
1.04002351447249
1.037263010361102
1.0394838508026376
1.040814889746763
1.0407391123642893
1.039795734412907
1.0381357032200367
1.035787535283848
1.0327790661142626
1.0292016358053182
1.0252066971411649
1.0209949909999367
1.016610566958709
1.0128917825104147
1.0068782215313659
1.0174851595699939
0.9252941150437287
0.708739306033942
0.6232815536186748
0.65196562164656
0.6647039280497824
0.6807668361341828
0.6982478031696693
0.717617130151176
0.7388867373392309
0.7621481690121288
0.7874775153610974
0.8149409699864272
0.8445765472877932
0.8763192292405775
0.9098838102195097
0.9447089042428545
0.9798791732047504
1.0141435849159706
1.046203596780376
1.074944003160947
1.0994388861922955
1.1189279190636012
1.1332049473643568
1.1422105925857644
1.1463579337340704
1.146281310263686
1.1414514789366856
1.131583623392439
1.116936972997054
1.0976198454693318
1.0741667947496913
1.0475211051296458
1.0187081738557884
0.9887611603330868
0.958736260377626
0.9295348988114759
0.9017820728570137
0.8758642689738242
0.8520084482877631
0.8303459758864564
0.8110140509416593
0.794075958314691
0.7814548832579741
0.7908578409711329
0.8899252321986824
0.9861878440329692
0.9978138934326901
1.0028018392074836
1.0096953124412071
1.0143146795413607
1.019106214744012
1.0239015188082714
1.0287936807846447
1.0336654105842298
1.0383482428896795
1.0426102752147048
1.0461884414793872
1.0488683484321455
1.0505630530784233
1.0513262102160859
1.0512801728607541
1.050516251905041
1.0489550899598963
1.045916379748448
1.0340397074616312
1.031707220704545
1.0339334332252683
1.0350582008177183
1.0349892572973411
1.0344107167509133
1.0333669765965499
1.0317569837644864
1.0294946387492185
1.026576744919351
1.0230814304193143
1.0191642757772856
1.014851507660079
1.0109301055549351
1.004618168846046
1.0131446544325593
0.9551611709618324
0.7561672496800855
0.6480085939581448
0.6749820170471097
0.6912007830759822
0.7094810531145438
0.7291194513312637
0.7504986151364146
0.7735885430163949
0.798381698740389
0.824815888703926
0.8527801839841581
0.8820469885629638
0.9122182973653398
0.9426998525311856
0.9727157143046072
1.0013714620183916
1.0277755448134727
1.0512005920667
1.0710992668451471
1.0871475564879918
1.0993325265114637
1.1079411936515597
1.1132768302579317
1.1157955972339635
1.1159792539915354
1.1135531077003935
1.1081095424158511
1.0994830255672414
1.0874267539282456
1.0718784747919217
1.0530761680655014
1.0315258061341366
1.0078679464409497
0.9828408492135475
0.9572408342800305
0.9318060741670244
0.9071548248328569
0.8837743082658949
0.8620464717675477
0.8423567773164629
0.8252446103664905
0.8142615902018694
0.8295400246759517
0.9082865545354101
0.9772275369139586
0.9895844710421408
0.9985498515687996
1.0065706289881338
1.0120875637968991
1.0173422728381292
1.0223641977383917
1.0272853280235272
1.031976451893551
1.0362447430839887
1.039866220112317
1.0426409083052792
1.0444599895850888
1.0453536277309152
1.0454855689625249
1.0450808052296279
1.0442876794483982
1.0429160033726748
1.0398087590567209
1.0278566195355006
1.0258073153274618
1.0278968645200504
1.0288028453856852
1.028801822975491
1.0286197056771746
1.0281811306509954
1.0273057973305528
1.0258333999727982
1.023660293006701
1.0207438257306765
1.0171279764957226
1.0127672873496376
1.0083154888849193
1.0013860449771146
1.0051444827285247
0.9798999264729642
0.8160036490914895
0.690428823075076
0.7037648574721163
0.7224761167172828
0.742560254841726
0.7638425234059731
0.7865831039502486
0.8106525184619003
0.8358973879526945
0.8620769630449666
0.8888675624236986
0.9158304415298948
0.9424111749689047
0.9679856497850728
0.99190173357053
1.0135656702906357
1.0325214781985912
1.048482487820365
1.0613594026741615
1.0712858235955287
1.0785654102282551
1.0835947786679956
1.0867434107321594
1.0883432341081636
1.0886272584834487
1.0875053821359655
1.084728957495006
1.080030495739469
1.0730833007410439
1.0636078244260954
1.0514537966203268
1.0366681962254467
1.0194926124145742
1.000321562484395
0.9796729003252295
0.9581440569003725
0.9363499438459557
0.9148846295160988
0.8943225316234428
0.8753395209768726
0.8591726587766921
0.850870771524279
0.8677266040218722
0.9238864904684181
0.9698936390533026
0.9836570440267816
0.9949367822304308
1.0034870044012587
1.00963550513907
1.0152439475910116
1.0204208468722635
1.0252639939499313
1.029625133144353
1.0333268586024063
1.0362139902989522
1.0381984745965016
1.0392866256785345
1.0395847607753015
1.039285672184437
1.0386323999408058
1.0378111361977342
1.036611015366443
1.0334931562479497
1.0216871982203681
1.0197812379867184
1.0216597037396475
1.022446480450446
1.022639675951078
1.0228797413036437
1.0229741934197805
1.0227070797673115
1.021875925908763
1.0202946255391658
1.0178069503086928
1.0143393083875554
1.0097634790986998
1.0045396728725127
0.9967763864036165
0.9944092348589654
0.9890150809269157
0.8780176151261074
0.7545431253685082
0.7411228675802433
0.75831087734841
0.7788585920932057
0.8006636074834087
0.8235897059295515
0.8473179563608192
0.8715254107921016
0.8958222411398784
0.9197649408364347
0.9428687595205245
0.9646337273924434
0.9845915032751077
1.0023549185536191
1.017663992108555
1.0304074701809953
1.0406319504738835
1.0485341396981822
1.054418702048331
1.0586383813417215
1.0615397122166752
1.0634117246938066
1.0644615781669051
1.0648005435935453
1.0644085927694693
1.063158109344594
1.0608422545660743
1.057188225970343
1.0519022881096611
1.0447168613482765
1.0354464057351962
1.0240318314258037
1.010559984690609
0.9952582236475506
0.9784803901371624
0.9606843181760786
0.9424111933981911
0.9243021285195605
0.9072735452858086
0.8931860403947485
0.8874167875335202
0.9012645618631889
0.9370786295427412
0.9668011608299746
0.9809320157223558
0.9925455333210447
1.0009228071908347
1.0073181344300601
1.013060769117731
1.0182116946480984
1.0227779814458038
1.0266092695039226
1.0296024754225854
1.031729986529066
1.0330372700536934
1.0336169337404069
1.0335831300067135
1.0330714855852985
1.0322656592486772
1.0313735037564002
1.030266394366096
1.0271757518188005
1.0157777852481789
1.0139041446518586
1.0155782552201886
1.0164160530766004
1.016946771547551
1.0176122844581672
1.018102620740203
1.0181895769665892
1.0176786939484896
1.0163881594294493
1.0141430789455406
1.010810829940418
1.0061864018271311
1.0004727350474107
0.9922255697112038
0.9846716644866842
0.9837870164755429
0.9256816472297961
0.8281500566576411
0.7901513236623781
0.7984921238117481
0.8168229174832471
0.837419336369949
0.8589805200821372
0.8808544680386066
0.9025541748182787
0.9236160775731435
0.9435992704775836
0.9620981052991002
0.9787713278594219
0.9933733374836546
1.0057766564842616
1.0159801098936598
1.0241026686946344
1.0303632298133139
1.035044430213377
1.0384513111728968
1.0408743190592593
1.0425623971570486
1.0437063168163951
1.0444317034586448
1.0448014114786859
1.0448152225645408
1.0444097630660027
1.0434594465989067
1.0417817441863888
1.039151589070989
1.035321839315419
1.0300543774484503
1.0231561326037641
1.0145148262403898
1.0041253325594466
0.9921042964314075
0.9787003602707146
0.9643104351292395
0.9495364225410747
0.9354017852438359
0.9239631660066974
0.9196230381013204
0.9284179521825442
0.949326236917042
0.9685276570714034
0.9812370972749216
0.99157630391446
0.9991982679789442
1.0054263818920917
1.0110028138815035
1.0158606475494296
1.0199132682422947
1.0230522740609687
1.025293435461725
1.0267454277771808
1.027552306922215
1.0278369916967982
1.0276743949154867
1.0271123972787033
1.0262420919437998
1.0252604731265031
1.0241653942660731
1.0211150755102962
1.010383355676978
1.008480343010189
1.0100429686163965
1.011130336019431
1.0120897531847624
1.0130990894802139
1.013773606588522
1.0139304559287252
1.0134588289721114
1.012267978021777
1.0102388619856337
1.0072205209200094
1.0029393785811769
0.9973419485871866
0.9893913732326847
0.9792655735819785
0.974930308559354
0.9498061229254116
0.8896140543737534
0.846645989221248
0.8422677215785724