# vtk DataFile Version 3.0
solution.vtk
ASCII
DATASET UNSTRUCTURED_GRID
POINTS 3200 double
0.5 0.0 0.0
0.49813567635 1.4622807076e-05 0.0
0.49256242082 0.00011620630276 0.0
0.48333889136 0.00038787415751 0.0
0.47056125044 0.00090527665137 0.0
0.45436085652 0.0017333401416 0.0
0.43490120827 0.0029235584197 0.0
0.41237429867 0.0045119424084 0.0
0.38699655606 0.0065176988099 0.0
0.35900455529 0.0089426608204 0.0
0.3286506753 0.011771449181 0.0
0.29619886082 0.014972303193 0.0
0.26192062017 0.018498491335 0.0
0.22609135975 0.022290190985 0.0
0.18898712346 0.026276716525 0.0
0.15088177428 0.030378973925 0.0
0.11204462728 0.034512026168 0.0
0.072738520471 0.038587665681 0.0
0.033218292595 0.042516905396 0.0
-0.0062703751481 0.046212317196 0.0
-0.045491803279 0.049590163934 0.0
-0.084220896461 0.05257228766 0.0
-0.12224351563 0.055087731419 0.0
-0.15935668786 0.057074084514 0.0
-0.19536869673 0.058478551282 0.0
-0.23009909023 0.059258751259 0.0
-0.26337863627 0.059383264318 0.0
-0.29504925009 0.058831938183 0.0
-0.32496391185 0.057595977997 0.0
-0.35298658704 0.055677838699 0.0
-0.3789921587 0.053090941054 0.0
-0.40286637572 0.049859231674 0.0
-0.42450581946 0.046016606344 0.0
-0.44381788798 0.041606214732 0.0
-0.46072079596 0.036679663188 0.0
-0.47514358722 0.031296130927 0.0
-0.48702615597 0.025521413581 0.0
-0.49631927316 0.019426906852 0.0
-0.50298461387 0.013088541932 0.0
-0.5069947826 0.0065856834591 0.0
-0.50833333333 7.4631658878e-18 0.0
-0.5069947826 -0.0065856834591 0.0
-0.50298461387 -0.013088541932 0.0
-0.49631927316 -0.019426906852 0.0
-0.48702615597 -0.025521413581 0.0
-0.47514358722 -0.031296130927 0.0
-0.46072079596 -0.036679663188 0.0
-0.44381788798 -0.041606214732 0.0
-0.42450581946 -0.046016606344 0.0
-0.40286637572 -0.049859231674 0.0
-0.3789921587 -0.053090941054 0.0
-0.35298658704 -0.055677838699 0.0
-0.32496391185 -0.057595977997 0.0
-0.29504925009 -0.058831938183 0.0
-0.26337863627 -0.059383264318 0.0
-0.23009909023 -0.059258751259 0.0
-0.19536869673 -0.058478551282 0.0
-0.15935668786 -0.057074084514 0.0
-0.12224351563 -0.055087731419 0.0
-0.084220896461 -0.05257228766 0.0
-0.045491803279 -0.049590163934 0.0
-0.0062703751481 -0.046212317196 0.0
0.033218292595 -0.042516905396 0.0
0.072738520471 -0.038587665681 0.0
0.11204462728 -0.034512026168 0.0
0.15088177428 -0.030378973925 0.0
0.18898712346 -0.026276716525 0.0
0.22609135975 -0.022290190985 0.0
0.26192062017 -0.018498491335 0.0
0.29619886082 -0.014972303193 0.0
0.3286506753 -0.011771449181 0.0
0.35900455529 -0.0089426608204 0.0
0.38699655606 -0.0065176988099 0.0
0.41237429867 -0.0045119424084 0.0
0.43490120827 -0.0029235584197 0.0
0.45436085652 -0.0017333401416 0.0
0.47056125044 -0.00090527665137 0.0
0.48333889136 -0.00038787415751 0.0
0.49256242082 -0.00011620630276 0.0
0.49813567635 -1.4622807076e-05 0.0
0.50017135964 0.0 0.0
0.49831942518 0.0011410251367 0.0
0.49278277215 0.0023572457333 0.0
0.4836183928 0.003720306132 0.0
0.47091976994 0.00529493343 0.0
0.45481470525 0.0071359273209 0.0
0.43546244078 0.0092856504326 0.0
0.41305021787 0.011772127677 0.0
0.38778943697 0.01460782132 0.0
0.35991158788 0.017789105006 0.0
0.32966411432 0.021296418692 0.0
0.29730636052 0.025095050626 0.0
0.2631057243 0.029136464434 0.0
0.2273341127 0.033360070132 0.0
0.19026476679 0.037695327731 0.0
0.15216949346 0.042064070216 0.0
0.11331631618 0.046382937733 0.0
0.073967535126 0.05056582514 0.0
0.034378170487 0.054526258903 0.0
-0.005205248912 0.058179634905 0.0
-0.044545596523 0.061445264788 0.0
-0.08341580627 0.064248193737 0.0
-0.12159932546 0.066520766463 0.0
-0.15889040704 0.068203930035 0.0
-0.19509428137 0.069248271987 0.0
-0.23002724237 0.069614799753 0.0
-0.26351667685 0.06927547314 0.0
-0.29540106031 0.06821350546 0.0
-0.32552993686 0.066423451371 0.0
-0.35376389599 0.06391110072 0.0
-0.37997455484 0.060693198061 0.0
-0.40404455084 0.056797007147 0.0
-0.425867547 0.05225973897 0.0
-0.44534824955 0.04712786084 0.0
-0.46240243661 0.041456302802 0.0
-0.47695699489 0.035307576446 0.0
-0.48894996124 0.028750819967 0.0
-0.49833056543 0.021860782196 0.0
-0.50505927076 0.014716757341 0.0
-0.50910780918 0.0074014813383 0.0
-0.51045920844 9.3868055415e-18 0.0
-0.50910780918 -0.0074014813383 0.0
-0.50505927076 -0.014716757341 0.0
-0.49833056543 -0.021860782196 0.0
-0.48894996124 -0.028750819967 0.0
-0.47695699489 -0.035307576446 0.0
-0.46240243661 -0.041456302802 0.0
-0.44534824955 -0.04712786084 0.0
-0.425867547 -0.05225973897 0.0
-0.40404455084 -0.056797007147 0.0
-0.37997455484 -0.060693198061 0.0
-0.35376389599 -0.06391110072 0.0
-0.32552993686 -0.066423451371 0.0
-0.29540106031 -0.06821350546 0.0
-0.26351667685 -0.06927547314 0.0
-0.23002724237 -0.069614799753 0.0
-0.19509428137 -0.069248271987 0.0
-0.15889040704 -0.068203930035 0.0
-0.12159932546 -0.066520766463 0.0
-0.08341580627 -0.064248193737 0.0
-0.044545596523 -0.061445264788 0.0
-0.005205248912 -0.058179634905 0.0
0.034378170487 -0.054526258903 0.0
0.073967535126 -0.05056582514 0.0
0.11331631618 -0.046382937733 0.0
0.15216949346 -0.042064070216 0.0
0.19026476679 -0.037695327731 0.0
0.2273341127 -0.033360070132 0.0
0.2631057243 -0.029136464434 0.0
0.29730636052 -0.025095050626 0.0
0.32966411432 -0.021296418692 0.0
0.35991158788 -0.017789105006 0.0
0.38778943697 -0.01460782132 0.0
0.41305021787 -0.011772127677 0.0
0.43546244078 -0.0092856504326 0.0
0.45481470525 -0.0071359273209 0.0
0.47091976994 -0.00529493343 0.0
0.4836183928 -0.003720306132 0.0
0.49278277215 -0.0023572457333 0.0
0.49831942518 -0.0011410251367 0.0
0.50087132336 0.0 0.0
0.49903247112 0.0025482560964 0.0
0.49353441385 0.005157370789 0.0
0.48443222506 0.0078849870228 0.0
0.47181630039 0.01078248357 0.0
0.45581034341 0.013892248367 0.0
0.43656869111 0.017245404995 0.0
0.41427310916 0.020860091583 0.0
0.38912920475 0.024740354177 0.0
0.36136261103 0.028875677619 0.0
0.33121509277 0.033241139858 0.0
0.29894070934 0.037798142988 0.0
0.2648021505 0.042495648471 0.0
0.2290673358 0.047271825969 0.0
0.19200634192 0.052056015116 0.0
0.15388869604 0.056770897067 0.0
0.11498105022 0.061334776359 0.0
0.07554523146 0.065663882329 0.0
0.035836646575 0.069674611304 0.0
-0.0038969901054 0.073285644645 0.0
-0.043416645381 0.076419892129 0.0
-0.08249271451 0.079006224146 0.0
-0.12090556992 0.080980968926 0.0
-0.15844595187 0.082289162207 0.0
-0.19491523812 0.082885545957 0.0
-0.23012562471 0.082735320198 0.0
-0.26390024515 0.081814657512 0.0
-0.29607324996 0.080110993784 0.0
-0.32648986332 0.077623111347 0.0
-0.35500642964 0.074361032126 0.0
-0.38149045819 0.070345738994 0.0
-0.40582067119 0.065608743491 0.0
-0.4278870577 0.0601915175 0.0
-0.44759093367 0.054144805699 0.0
-0.46484500698 0.047527834562 0.0
-0.47957344508 0.04040743267 0.0
-0.49171194247 0.032857075999 0.0
-0.50120778472 0.024955870899 0.0
-0.50801990599 0.016787486557 0.0
-0.51211893696 0.0084390479908 0.0
-0.51348724109 1.2140641168e-17 0.0
-0.51211893696 -0.0084390479908 0.0
-0.50801990599 -0.016787486557 0.0
-0.50120778472 -0.024955870899 0.0
-0.49171194247 -0.032857075999 0.0
-0.47957344508 -0.04040743267 0.0
-0.46484500698 -0.047527834562 0.0
-0.44759093367 -0.054144805699 0.0
-0.4278870577 -0.0601915175 0.0
-0.40582067119 -0.065608743491 0.0
-0.38149045819 -0.070345738994 0.0
-0.35500642964 -0.074361032126 0.0
-0.32648986332 -0.077623111347 0.0
-0.29607324996 -0.080110993784 0.0
-0.26390024515 -0.081814657512 0.0
-0.23012562471 -0.082735320198 0.0
-0.19491523812 -0.082885545957 0.0
-0.15844595187 -0.082289162207 0.0
-0.12090556992 -0.080980968926 0.0
-0.08249271451 -0.079006224146 0.0
-0.043416645381 -0.076419892129 0.0
-0.0038969901054 -0.073285644645 0.0
0.035836646575 -0.069674611304 0.0
0.07554523146 -0.065663882329 0.0
0.11498105022 -0.061334776359 0.0
0.15388869604 -0.056770897067 0.0
0.19200634192 -0.052056015116 0.0
0.2290673358 -0.047271825969 0.0
0.2648021505 -0.042495648471 0.0
0.29894070934 -0.037798142988 0.0
0.33121509277 -0.033241139858 0.0
0.36136261103 -0.028875677619 0.0
0.38912920475 -0.024740354177 0.0
0.41427310916 -0.020860091583 0.0
0.43656869111 -0.017245404995 0.0
0.45581034341 -0.013892248367 0.0
0.47181630039 -0.01078248357 0.0
0.48443222506 -0.0078849870228 0.0
0.49353441385 -0.005157370789 0.0
0.49903247112 -0.0025482560964 0.0
0.50249899596 0.0 0.0
0.50067270419 0.0042941903284 0.0
0.49521160189 0.0086319826563 0.0
0.48616862126 0.013054148294 0.0
0.47363071262 0.01759594453 0.0
0.45771700605 0.022284715339 0.0
0.43857636522 0.027137892621 0.0
0.41638444766 0.032161486801 0.0
0.3913404023 0.037349123298 0.0
0.36366334085 0.04268164739 0.0
0.33358871692 0.048127287309 0.0
0.30136473571 0.053642336487 0.0
0.26724889963 0.059172292559 0.0
0.23150477426 0.0646533741 0.0
0.19439903587 0.070014326292 0.0
0.15619883884 0.075178423574 0.0
0.11716952064 0.080065579724 0.0
0.077572643492 0.084594482764 0.0
0.037664357902 0.088684682092 0.0
-0.0023059378522 0.092258567182 0.0
-0.042096674801 0.095243189773 0.0
-0.081474963287 0.09757189396 0.0
-0.12021725308 0.099185730101 0.0
-0.15810983951 0.10003463871 0.0
-0.19494924874 0.10007839916 0.0
-0.23054253142 0.099287345059 0.0
-0.26470748963 0.097642853494 0.0
-0.29727285746 0.095137619549 0.0
-0.32807845127 0.09177572996 0.0
-0.35697530144 0.087572551664 0.0
-0.38382577409 0.082554451769 0.0
-0.40850368784 0.076758365689 0.0
-0.43089442846 0.070231229949 0.0
-0.45089506203 0.063029295615 0.0
-0.46841444598 0.05521733752 0.0
-0.48337333596 0.046867773642 0.0
-0.49570448637 0.038059708094 0.0
-0.50535274156 0.028877910365 0.0
-0.51227511502 0.019411742676 0.0
-0.51644085395 0.0097540466561 0.0
-0.51783148705 1.6119948917e-17 0.0
-0.51644085395 -0.0097540466561 0.0
-0.51227511502 -0.019411742676 0.0
-0.50535274156 -0.028877910365 0.0
-0.49570448637 -0.038059708094 0.0
-0.48337333596 -0.046867773642 0.0
-0.46841444598 -0.05521733752 0.0
-0.45089506203 -0.063029295615 0.0
-0.43089442846 -0.070231229949 0.0
-0.40850368784 -0.076758365689 0.0
-0.38382577409 -0.082554451769 0.0
-0.35697530144 -0.087572551664 0.0
[...]
POINT_DATA 3200
FIELD FlowField 5
Density 1 3200 double
0.9888302941211465
0.9733555056679479
0.9626351060511888
0.9531610841098341
0.9449044829756714
0.9374812578077012
0.9306775776151235
0.9245259589893222
0.9190857747110549
0.9144151857326274
0.9105710827974799
0.9076073325901702
0.9055637935933203
0.9044615769718756
0.9043062079711721
0.9051286503614644
0.9069895578323831
0.9099346057595816
0.9139984970744766
0.9192173606930463
0.9256174254092753
0.93320731287035
0.9419967433752757
0.9520300185330764
0.9634080690288465
0.9762969795414632
0.9909501711376921
1.007690642230381
1.0267872048092215
1.048508752370572
1.0732243334359632
1.101114262183462
1.1324451561366735
1.1682612946690458
1.2105895221644816
1.2629512910955996
1.332602605752288
1.423175865174839
1.5103114686784145
1.601730307522967
1.6657885483488437
1.621431515087468
1.5331717167826397
1.453395028177633
1.367465572136683
1.2980230959440995
1.245926021143677
1.203504175001893
1.1675551530800368
1.1361503538030944
1.108145981830205
1.083176781339482
1.0610929869023153
1.0415732342738477
1.0243108400833734
1.0091232275346271
0.995843692905951
0.9842672487232118
0.9741859447007174
0.9654454920641338
0.9579426226275324
0.9516075170743914
0.9464038736896005
0.9423225996250777
0.9393621276969094
0.937510405534105
0.9367343636018812
0.9369773626446778
0.9381958752820436
0.9403683092073116
0.9434662398590252
0.9474474502217107
0.9522550725016122
0.9578214137682644
0.9640705500878404
0.9709269688553038
0.9783274298294855
0.9859187095259423
0.9925506868921683
0.9970442413720877
0.9890253903330126
0.9738968529484777
0.962293534375589
0.95247580116897
0.9441055125290205
0.9366952566177105
0.9299429698157791
0.923861658853077
0.91850688548615
0.913934231913919
0.9101984355669515
0.9073515668723438
0.905431988478899
0.9044594019335265
0.9044406374759203
0.9054083372193863
0.9074219763826318
0.9105270821855509
0.9147591271452393
0.9201536123771514
0.9267365567711714
0.9345193849924646
0.9435174755844975
0.9537819533566757
0.9654224142110677
0.978619574136827
0.993649711188497
1.0108674994315143
1.0306020699934968
1.0531561223951036
1.078760164980377
1.1075884926889386
1.1401848807098065
1.177875759290325
1.2229489201463304
1.2787852680256093
1.3502168653869142
1.4391210064920283
1.5244508993149661
1.608588414621359
1.6655536837165847
1.6265872830374861
1.5450656820054112
1.4679470626891498
1.3840394016479531
1.3135943635484757
1.2582324292989329
1.2131465035330322
1.1753422305412617
1.142652966512223
1.1137234718613662
1.0879366739788074
1.0650722411398201
1.0449058754184763
1.0271427327586915
1.011552378192183
0.9979333076045425
0.986065529225716
0.9757300264149213
0.9667623929672996
0.9590523936239778
0.95252533462306
0.9471403649824157
0.9428850595345268
0.9397569519255453
0.9377443533964985
0.9368152901970939
0.9369145379353814
0.937997588454258
0.9400415422096706
0.9430188100228979
0.9468885547307595
0.9515955747646753
0.9570740831263795
0.9632508099816908
0.9700551173145309
0.9774322341255888
0.985039071129918
0.9917341099889935
0.9962597903084076
0.9894720207069043
0.9753096645420172
0.9618872247765331
0.9511342795272887
0.9424091317043426
0.9349573476242047
0.9282714718278703
0.9223066583509663
0.917107775761536
0.9127241313756799
0.9092055608476947
0.9066004964726208
0.9049447386903505
0.9042555952504726
0.904542996869725
0.905842836668276
0.9082110412402427
0.9116920324525091
0.9163223981552171
0.9221349962544637
0.9291542136314614
0.9373978303884309
0.9468951474822918
0.9577156871402506
0.9699928234138935
0.9839405880308667
0.9998805938061928
1.0182274605175103
1.039368150258506
1.0635446782560334
1.0908648055724237
1.12170087663779
1.1570701732224387
1.198741184107397
1.2490737470286009
1.3105017999910524
1.3834455755200106
1.4662455782720252
1.5442081729686377
1.6116368747332253
1.65242353007181
1.625793974596558
1.5617026909735645
1.4917807688449554
1.4143047545286964
1.344135649525039
1.2839396204999511
1.2339469437787929
1.1922646351212072
1.1567729754890244
1.1258326523836888
1.0984159210581907
1.0740612306612896
1.052564271296068
1.0336834911467228
1.0171596121347595
1.0027385818160972
0.9901727745866091
0.9792261528209767
0.9697144251941261
0.9615111086983708
0.9545284336835186
0.948713804520803
0.944047753826269
0.940526497786055
0.9381396313479853
0.936858470269508
0.9366318217631202
0.9374133510592346
0.9391770419757355
0.9418965842377222
0.9455335393966626
0.9500359866930304
0.9553423281702929
0.9613857221445073
0.968109185625601
0.975480281365562
0.9831796556445344
0.990047466032528
0.9946170717852747
0.9896811310033176
0.9769963894069713
0.9623016379939366
0.9501970361136958
0.940785399137078
0.9331218806666188
0.9264107149909457
0.9205036994517691
0.9154255971220295
0.9112155572411429
0.9079159535036774
0.9055707469312879
0.9042138893792113
0.9038618788163135
0.9045288726768015
0.9062510508329268
0.9090763864301098
0.9130467666870014
0.9182000623362135
0.9245662763451594
0.9321668888678909
0.9410270775748272
0.951199586393317
0.9627931497585285
0.9759848418233372
0.991028741091031
1.0082779084896774
1.0281434981149584
1.0509419864220961
1.0768420910420025
1.1060694046595227
1.1391667673380739
1.1771648692363366
1.221221142523084
1.2720006583961943
1.328388367385125
1.387625614130962
1.4468645102710052
1.4944876772683582
1.5336178118707973
1.5591725760587218
1.5424535371914596
1.506126588029192
1.464920717681187
1.4110095993995304
1.3563473971791904
1.3034037103659737
1.254509556072668
1.2113774103853667
1.1737927292574315
1.1408346644096024
1.1116728003710756
1.0857591729643692
1.0627954489626894
1.0425443046876004
1.0247706010889994
1.009220844649958
0.9956464434328517
0.9838155023347682
0.9735302326866674
0.9646425913667009
0.9570379608321595
0.950641747811087
0.9454255458230916
0.9413837531207305
0.9385066999597307
0.9367696276322038
0.9361282702814766
0.9365369186726267
0.937965861707789
0.9403886957966098
0.9437687779897801
0.9480579315354131
0.9532003121396224
0.959138707640563
0.965838489015932
0.9733032709114491
0.981235451067505
0.988363598566214
0.9929790243960683
0.9892095459941582
0.9785043216513922
0.9639167383434348
0.950498203829151
0.9402320373433236
0.932298565497749
0.9255787994251224
0.9197776605272652
0.9148855840923693
0.9109248443651471
0.9079242946496423
0.9059190943347715
0.9049395551856398
0.9050032632818872
0.9061270176799183
0.9083394647450931
0.9116759029326106
0.9161752922417098
0.9218790293100306
0.9288191550294221
0.937016299495603
0.9465004866285253
0.9573493662013755
0.9697131524975682
0.9837778215417778
0.9997607407916587
1.017922817088167
1.0384711232326655
1.0614561367157673
1.0868837010474242
1.1147684028636586
1.1449540814712038
1.1769780780015362
1.2094872087076436
1.2395764726495875
1.2631117959053473
1.2769730153884231
1.2803733983541974
1.273188465667898
1.272539536493753
1.2802465624712467
1.2747269568158484
1.274252206570888
1.2840650518810364
1.2845720237109761
1.275652691290741
1.257671209121135
1.2324824071188798
1.2036049486806903
1.1740196923187918
1.1455234058583201
1.1188069284098203
1.094163250005919
1.0716893313032079
1.0513636407835218
1.0331214800499888
1.01686145315866
1.0024635801344555
0.9898005215270158
0.9787312158285566
0.9691270770290136
0.960859985761238
0.9538337143362894
0.948013593660411
0.9433910195613843
0.9399546618355477
0.937681672898391
0.9365360063007269
0.9364786302798265
0.9374794508717305
0.9395114816235156
0.9425410616523173
0.9465270603899958
0.9514248803908245
0.957195318188001
0.9638399532966021
0.9714132832621121
0.9796061946682499
0.9869088538998176
0.9914324997042135
0.9884742168788496
0.9799000573636069
0.9666979504736213
0.9531415463190169
0.9427109098101988
0.9350381623887355
0.9288243761190573
0.9236171083554743
0.9193586473001922
0.916046229269616
0.913686232314177
0.9122961252871539
0.9118949168345603
0.9124989695766152
0.9141209241855257
0.9167745287810867
0.920482041299435
0.9252763371549473
0.9311986387156274
0.9382812520903127
0.9465382702724093
0.955982295199976
0.9666640063111147
0.9786665177197338
0.9920341866977116
1.0067568824434237
1.0227336890472238
1.0397012823178642
1.0572470002836492
1.0748703994880597
1.0918601315356067
1.1070890983555346
1.1189274244343088
1.125362204954219
1.1243035867286397
1.1152058215732819
1.0990542975082302
1.0774467544305322
1.0561072599634442
1.0439458643794157
1.0414193273243726
1.0431435147629138
1.0533915244387222
1.0740123859434663
1.096212020202968
1.1139899683104737
1.1259643208928096
1.1310830645112095
1.128970702516237
1.1211543687076366
1.1095307475128322
1.0956050386400178
1.0805012954412692
1.0650274301659493
1.049724817101493
1.0349454341269904
1.0209431492238497
1.0079193845868186
0.9960266788084953
0.9853454223699643
0.9758945118418528
0.9676253454401913
0.960480418527374
0.9544511951060679
0.94953910019249
0.9457370109898837
0.9430267437759751
0.9413818593246988
0.9407765161841061
0.941189020543498
0.9425983595727001
0.9449817484954538
0.948314499001714
0.9525745157765725
0.9577549674694026
0.9639131829737596
0.9711672157357635
0.9791598759234836
0.9861164001307698
0.9901348184611239
0.9884245793700641
0.9818389176402513
0.9711146843693725
0.9594984440072485
0.950569682578986
0.9444491138987186
0.9398570678185793
0.9362198502103121
0.9334294829711234
0.931456109845607
0.9302794214768939
0.9298926994768992
0.9302991844397717
0.9315047547879896
0.9335098979903923
0.9363123931014781
0.9399167780715412
0.9443393472031316
0.9496038423235298
0.9557234806319203
0.9626843250510424
0.9704436152629679
0.9789658853811185
0.9881578578295497
0.9978139543942972
1.0076383534695428
1.0172127270775924
1.026032061208413
1.0335793601795094
1.0393281761348012
1.0427044200518665
1.0431324829101014
1.0402021109870996
1.033960011803147
1.0253592563681768
1.0163481422295382
1.0089315811136663
1.0040680811084466
1.0015443631926075
1.0003166294193528
0.9998422641954846
1.0001664906096195
1.0011128584976572
1.0031768584750844
1.0073203886621356
1.0139246173309608
1.0224870179492425
1.031424653228917
1.0389825549410936
1.0440238815612877
1.0461277453016133
1.0455119267062543
1.0425665336095848
1.037762871476925
1.0315426460015749
1.0242923909492816
1.0163758129741116
1.0081483537188916
0.9999498537298707
0.9920751989408962
0.9847530358109872
0.9781005817558315
0.972165908963983
0.9670029669027733
0.9626486149076585
0.9591173524191142
0.9564079645978358
0.9545121553485505
0.9534226977597516
0.9531359891859005
0.9536490911098116
0.9549602834996177
0.9570718779633788
0.9599942171016691
0.9637632467436622
0.9685021996821142
0.9743948131667333
0.9810673413821895
0.9867360187887034
0.9897626984268102
0.9898577633694929
0.9852101106580968
0.9778262430636556
0.96994244352436
0.9642974044856959
0.961059517816074
0.9590709808039221
0.9577382324273054
0.9569410501848579
0.956645190384303
0.9568194084199519
0.9574442903857685
0.9585115575983021
0.9600133836760602
0.9619389549348174
0.9642753208190527
0.9670102569974643
0.9701392087248818
0.9736607444417649
0.9775626327161655
0.9818054157905358
0.9863109879069707
0.9909824661715556
0.9956230924667573
0.9999447195892128
1.0036593147699602
1.0064949852148866
1.0082555170899856
1.0088499492985779
1.008293933889852
1.0067306827286966
1.00445796968082
1.001931102692064
0.9997056305728326
0.9982836660730044
0.9978089201779906
0.9979913753200294
0.9984340712451767
0.9988521677622492
0.9991090424039082
0.9991960535428519
0.9991336578905969
0.9989025696763552
0.9984950685732391
0.9980111137520422
0.9976813811343244
0.9978149925417207
0.9987348490058073
1.0005118880469608
1.002851167910585
1.0053143299929248
1.0074881681045822
1.0090581058827741
1.009818821228253
1.0096682361832068
1.0085936267543314
1.0066520341473773
1.0039615927719439
1.0006981569027995
0.9970799349609946
0.9933520390811365
0.98970764596865
0.9862626845363205
0.9831056314044009
0.9802967727645711
0.9778695983793467
0.9758406988416274
0.9742205209904422
0.9730187136195515
0.9722480632826576
0.9719242249128417
0.9720650668706926
0.9726941454792959
0.9738447286603558
0.9755825087416696
0.9780755275563776
0.9815584683059267
0.9857668309199001
0.9893173774180464
0.9910453156069355
0.9929307794540144
0.9901137863983542
0.9861317743740922
0.9824034113454011
0.9804988510330969
0.9802330533219742
0.9806082979912281
0.9811548309473318
0.9818180016514384
0.9825996064126777
0.9834863584271676
0.9844680948113207
0.9855383543554184
0.986689219656062
0.9879107576129749
0.9891906699675574
0.9905158065590527
0.9918760644795656
0.9932637466585816
0.9946665631342845
0.9960584340954349
0.9973915391536753
0.9985933570335183
0.9995394918463292
1.0001068980145627
1.0002445998517553
0.9999716296353478
0.9993794883409144
0.9986119660954192
0.9978364002547776
0.9972174394920224
0.9968926083199223
0.9969377020192103
0.9973327442916268
0.9979635015113415
0.9986505024857085
0.9992275264141892
0.9996176960198031
0.9998341285024932
0.99993319034632
0.9999632674463548
0.9999445418515336
0.9998660478718673
0.9996869894786518
0.9993520036903858
0.9988318131458054
0.9981632923018455
0.9974644595778421
0.9968946333469442
0.9965845313890243
0.9966042004034708
0.9969495597904066
0.9975490249781143
0.9982922141623632
0.999053294165003
0.9997092257223519
1.000152139388064
1.00030124532493
1.0001160799178008
0.9996056784504663
0.9988415897520739
0.9979220799611556
0.9969237139417895
0.9959011678272289
0.9948909411916604
0.9939150205690471
0.9929867055765613
0.9921170758561102
0.991317875088703
0.9906028311775937
0.9899884138074002
0.9894928125608403
0.9891371458805885
0.9889484825995083
0.9889820289859356
0.9893928727984285
0.9904280843082944
0.9920305907363065
0.9934252022959185
0.9939542409044242
0.9966308117532112
0.9953280394504622
0.9939500274566377
0.9932221786371447
0.9937182108508776
0.9949738781573989
0.9962516733145979
0.9973107941841892
0.9982008024648916
0.9989717695427534
0.9996387755861793
1.0002098447761787
1.0006918174986579
1.0010889321607468
1.001402579199669
1.0016318068805636
1.0017749373898837
1.0018321497382452
1.0018065715733757
1.0017031373358398
1.0015260839465236
1.0012729395297693
1.0009359966028994
1.0005112955199156
1.0000184309743272
0.9995081173518666
0.9990463464440638
0.9986979861403178
0.9985089606654746
0.9984958392794998
0.9986441480121042
0.998911978976762
0.9992368492389683
0.999549923341427
0.999796578661859
0.9999523335767686
1.000026068847511
1.0000465167339074
1.0000431528392126
1.0000353955655186
1.0000316946717294
1.0000341884038164
1.0000418953224366
1.0000489962205292
1.0000405985730925
0.9999919403455386
0.9998747926022374
0.9996706530881567
0.9993845143410289
0.9990486465247451
0.998714656818213
0.9984393669273888
0.998270709590904
0.9982396934998298
0.998357353174048
0.998614255596372
0.9989818493660308
0.9994160219154148
0.9998648434548337
1.0002792463249313
1.0006292508978203
1.000908122265774
1.0011197105412633
1.0012670566919821
1.0013491226570042
1.001363128014929
1.0013060812427688
1.0011765880035572
1.000975309536455
1.0007041873412736
1.0003655044271023
0.9999611636016128
0.9994927549119531
0.9989604667511451
0.9983760767430041
0.9978242578325468
0.9974965558281799
0.9974872345716701
0.9975248503318097
0.9973568775523516
0.9994241251519608
0.9990879615923868
0.9990655710815869
0.9995754665408838
1.000618488912547
1.0017465459417552
1.0025812530241458
1.0031060596374002
1.0034345912642286
1.0036334064965737
1.0037275929796519
1.0037328192674855
1.0036622577103052
1.003526408325529
1.0033334422151987
1.0030898625752398
1.0028013771605289
1.0024741361715863
1.0021158380015684
1.0017364194330565
1.0013481568247022
1.0009621139653262
1.0005955668252504
1.0002734593226397
1.0000178136908722
0.9998440007797855
0.9997566214521485
0.9997474905341767
0.9997968905071359
0.9998785578933673
0.9999659967365848
1.0000377918999916
1.000081253626088
1.0000941461172044
1.0000834789081245
1.0000610786510153
1.0000379359334608
1.000020322271967
1.0000095538778557
1.0000042195533285
1.0000025045692826
1.0000035254784465
1.0000077469956947
1.0000167456333755
1.0000322671580635
1.0000544263323579
1.0000796334388031
1.0000997134246168
1.0001036829069336
1.0000817601248273
1.0000294999439467
0.9999502540794105
0.999855215030633
0.9997615938761659
0.9996898053635794
0.9996602134896586
0.9996896616995496
0.9997880720314779
0.9999561037689899
1.0001844754979823
1.00045621672112
1.0007513982536091
1.0010542653720433
1.0013529747297305
1.0016359958074221
1.001893335857487
1.0021165554232025
1.00229868684566
1.0024336777932998
1.0025154053352043
1.0025367313539313
1.0024888850953375
1.002360238259061
1.0021317865879045
1.0017785850236403
1.0013082410055272
1.0008120909641411
1.00040352562529
1.0000661703872729
0.999777167589788
1.0005615510756658
1.0006208099057128
1.0009139881104214
1.0014172992719859
1.0019831310287033
1.0023675062718147
1.0024846695838274
1.002429084406546
1.0023025461301447
1.0021456129809834
1.0019693415293365
1.0017808375574833
1.0015864366265528
1.0013910661838483
1.0011985650279402
1.0010119641501507
1.0008336056680012
1.0006654156384653
1.0005093292543155
1.00036771717436
1.0002436994056165
1.0001406317414725
1.000064824141294
1.0000213244849872
1.0000077440767714
1.0000167444578296
1.0000382532952277
1.0000618755010178
1.0000792733353925
1.0000858064430425
1.0000808767830967
1.0000671121627986
1.0000489324634065
1.0000309261121318
1.0000164363768356
1.0000068210302404
1.0000016348123304
0.9999994744943445
0.9999988891970737
0.999998874341168
0.9999989266790822
0.9999988906813679
0.9999988381548215
0.9999991217435106
1.0000005207371725
1.00000428480131
1.0000118857311984
1.0000243834280873
1.0000416331432123
1.0000617913592271
1.0000814613549471
1.0000964836520938
1.0001030706169831
1.0000989247957979
1.0000840964677131
1.0000614601144542
1.000036683545678
1.0000175214532936
1.0000123915266188
1.0000283379447252
1.0000686753571815
1.000131459392384
1.0002127039458555
1.0003090490303825
1.000417232798388
1.0005344215057341
1.0006581198959217
1.000785940806854
1.000915234776938
1.0010426598251945
1.0011638087538794
1.0012729528163853
1.0013619836700824
1.0014155514942051
1.0014052166873448
1.0013038039195135
1.0011246439462425
1.0009257159819451
1.0007447766711433
1.000625973325509
1.0005024532255722
1.0006004817295198
1.0007592111436623
1.0009169475748743
1.0009886818150044
1.0009178899301223
1.0007469209785533
1.0005592116724134
1.000397921919954
1.000265902336588
1.0001571916609309
1.0000686303073656
0.9999983986233413
0.9999447917732799
0.9999062383155433
0.9998812732431683
0.9998683869648131
0.999865929020828
0.9998721337036973
0.9998852234437868
0.9999035377892875
0.9999258536914168
0.9999507597810768
0.9999756425186282
0.9999973418517383
1.000013367261845
1.0000224901001
1.0000249408396213
1.0000222134576944
1.0000165001184318
1.0000100012591304
1.0000043822733047
1.000000518740374
0.999998521425402
0.9999979697725515
0.9999982401707433
0.9999987895539786
0.9999992936367806
0.9999996358605161
0.9999998193084281
0.9999998820536511
0.9999998468444355
0.9999997024825709
0.9999994122596255
0.9999989481210292
0.9999983551877696
0.9999978362205486
0.9999978067599617
0.9999988548446428
1.0000015746227544
1.0000063142350346
1.0000129328900036
1.000020661978619
1.0000281246110523
1.0000335241232967
1.0000349876201802
1.0000310233933818
1.0000209885214966
1.0000054044827003
0.9999859775825329
0.9999651618706403
0.9999452071023415
0.9999276160668504
0.9999136327527445
0.9999046120236789
0.9999019465086458
0.9999070245878575
0.9999211456340338
0.9999454562596181
0.999980912419498
1.0000282603423445
1.0000881476352173
1.0001610580801024
1.0002448305387177
1.0003283849459665
1.000391308047347
1.0004207944048993
1.0004276461649901
1.000428661380506
1.0004523524355626
1.000140951344556
1.0001757557721924
1.0001932803238522
1.0001673336782355
1.000087147087372
0.9999709584234813
0.9998625275033854
0.9997908556150988
0.9997545024095502
0.9997405982595119
0.9997404066416626
0.9997497279748844
0.9997658493332272
0.9997866019875383
0.9998103001745635
0.99983563987265
0.9998615668354803
0.9998871740016191
0.9999116439731004